# vtk DataFile Version 4.2
vtk output
ASCII
DATASET POLYDATA
POINTS 10 float
3.5 2.19615 18 3.45947 2.28939 18.0538 3.45117 2.35599 18.0923 
3.46924 2.39596 18.1154 3.50781 2.40928 18.123 3.56103 2.39596 18.1154 
3.62305 2.356 18.0923 3.68799 2.28939 18.0538 3.75 2.19615 18 
3.43 1.83959 18.6176 
POINT_DATA 10
SCALARS Z-dimension float
LOOKUP_TABLE default
1 2 3 4 5 6 7 8 9 
10 
